<VTKFile type="UnstructuredGrid" version="0.1" byte_order="LittleEndian">
<UnstructuredGrid>
<Piece NumberOfPoints="3" NumberOfCells="0">
<Points>
<DataArray name="Position" type="Float32" NumberOfComponents="3" 
format="ascii">
0 0 0 1 1 1 0 0 1
</DataArray>
</Points>
<PointData  Vectors="vector">
<DataArray type="Float32" Name="Velocity" NumberOfComponents="3" 
format="ascii">
4 4 4 4 0 0 2 2 -2
</DataArray>
<DataArray type="Float32" Name="Diameter" format="ascii">
0.1 0.5 1
</DataArray>
<DataArray type="Float32" Name="Temperature" format="ascii">
273 300 350
</DataArray>
</PointData>
<Cells>
<DataArray type="Int32" Name="connectivity" format="ascii">
</DataArray>
<DataArray type="Int32" Name="offsets" format="ascii">
</DataArray>
<DataArray type="UInt8" Name="types" format="ascii">
</DataArray>
</Cells>
</Piece>
</UnstructuredGrid>
</VTKFile>
