# vtk DataFile Version 3.0
vtk output
ASCII
DATASET UNSTRUCTURED_GRID
POINTS 5 float
-49.8834 58.5583 -5.1352
-48.8985 57.4553 -4.76804
-48.6201 57.148 -4.6694
-49.0003 58.8098 -6.21952
-49.1395 58.229 -4.75122

CELLS 1 6
5 0 1 2 3 4

CELL_TYPES 1
14

CELL_DATA 1
SCALARS t float
LOOKUP_TABLE default
0
