# vtk DataFile Version 3.0
vtk output
ASCII
DATASET UNSTRUCTURED_GRID
POINTS 91 float
-51.1634 55.9995 -3.40357
-51.3152 57.2173 -3.54946
-48.1785 55.4136 -2.71823
-50.2798 54.995 -3.12301
-50.2356 56.6064 -5.01091
-51.3152 57.2173 -3.54946
-51.3007 58.0331 -3.62264
-47.9026 56.4314 -2.75509
-48.1785 55.4136 -2.71823
-50.2356 56.6064 -5.01091
-51.3007 58.0331 -3.62264
-49.4229 58.475 -3.26725
-49.365 58.4094 -3.24889
-47.9026 56.4314 -2.75509
-50.2356 56.6064 -5.01091
-47.9026 56.4314 -2.75509
-49.365 58.4094 -3.24889
-48.6482 57.192 -4.60773
-48.5571 57.0583 -4.64549
-50.2356 56.6064 -5.01091
-48.8985 57.4553 -4.76804
-48.5571 57.0583 -4.64549
-48.6482 57.192 -4.60773
-50.2356 56.6064 -5.01091
-49.2795 54.9862 -5.84198
-47.3755 55.4524 -4.29588
-49.8834 58.5583 -5.1352
-50.9287 58.3796 -5.95912
-50.2356 56.6064 -5.01091
-47.3755 55.4524 -4.29588
-48.5571 57.0583 -4.64549
-48.8985 57.4553 -4.76804
-49.8834 58.5583 -5.1352
-50.2356 56.6064 -5.01091
-47.547 57.7754 -6.97048
-46.756 55.4997 -5.22896
-48.6201 57.148 -4.6694
-49.0003 58.8098 -6.21952
-49.5614 57.0437 -6.23812
-48.8985 57.4553 -4.76804
-48.6201 57.148 -4.6694
-48.5571 57.0583 -4.64549
-49.5614 57.0437 -6.23812
-50.8984 57.3902 -6.25535
-50.9097 57.5543 -6.21082
-47.3755 55.4524 -4.29588
-49.2795 54.9862 -5.84198
-49.5614 57.0437 -6.23812
-50.9097 57.5543 -6.21082
-50.9287 58.3796 -5.95912
-48.5571 57.0583 -4.64549
-47.3755 55.4524 -4.29588
-49.5614 57.0437 -6.23812
-50.9287 58.3796 -5.95912
-49.8834 58.5583 -5.1352
-48.8985 57.4553 -4.76804
-48.5571 57.0583 -4.64549
-49.5614 57.0437 -6.23812
-49.0003 58.8098 -6.21952
-48.6201 57.148 -4.6694
-48.8985 57.4553 -4.76804
-49.8834 58.5583 -5.1352
-49.5614 57.0437 -6.23812
-49.0425 58.8892 -6.15681
-49.0003 58.8098 -6.21952
-48.6201 57.148 -4.6694
-48.6482 57.192 -4.60773
-49.1395 58.229 -4.75122
-49.8834 58.5583 -5.1352
-48.8985 57.4553 -4.76804
-48.6201 57.148 -4.6694
-49.0003 58.8098 -6.21952
-49.1395 58.229 -4.75122
-48.6201 57.148 -4.6694
-48.8985 57.4553 -4.76804
-48.6482 57.192 -4.60773
-49.1395 58.229 -4.75122
-48.6482 57.192 -4.60773
-48.8985 57.4553 -4.76804
-48.6201 57.148 -4.6694
-48.5571 57.0583 -4.64549
-47.547 57.7754 -6.97048
-49.0003 58.8098 -6.21952
-48.6201 57.148 -4.6694
-48.5571 57.0583 -4.64549
-47.4344 57.5649 -4.3853
-49.365 58.4094 -3.24889
-48.6482 57.192 -4.60773
-48.6201 57.148 -4.6694
-49.0003 58.8098 -6.21952
-47.4344 57.5649 -4.3853

CELLS 19 110
5 0 1 2 3 4
5 5 6 7 8 9
5 10 11 12 13 14
5 15 16 17 18 19
4 20 21 22 23
5 24 25 26 27 28
5 29 30 31 32 33
5 34 35 36 37 38
4 39 40 41 42
5 43 44 45 46 47
5 48 49 50 51 52
5 53 54 55 56 57
5 58 59 60 61 62
5 63 64 65 66 67
5 68 69 70 71 72
4 73 74 75 76
4 77 78 79 80
5 81 82 83 84 85
5 86 87 88 89 90

CELL_TYPES 19
14
14
14
14
10
14
14
14
10
14
14
14
14
14
14
10
10
14
14

CELL_DATA 19
SCALARS t float
LOOKUP_TABLE default
0
1
2
3
4
5
6
7
8
9
10
11
12
13
14
15
16
17
18
