# vtk DataFile Version 3.0
vtk output
ASCII
DATASET POLYDATA
POINTS 100 double
  -0.1099958325213291343569466    0.7159336745622498776597809 -9.122899804995146994977612e-10 
  -0.1099958331352110796341748    0.7159336877092649098486277 -9.538393228485688617717299e-09 
  -0.1099958265342588364932297    0.7159336826645700257998328 9.325333913342428343804632e-10 
  -0.1099958305512364203915254    0.7159336768089165081718761 -4.621939848374083675230241e-09 
  -0.1099958309796880834285915    0.7159336758792127497486035 1.337943081372146478928642e-12 
  -0.1099958316281972048322757    0.7159336747698260561278971 7.560959482996491419114138e-10 
    -0.10999583178054934962109    0.7159336774073183917721508 5.166974015696412241985757e-09 
  -0.1099958310007940892605305    0.7159336759222961754645098 8.400549767855012441314019e-13 
  -0.1099958319441468601596057     0.715933676895159298858573  5.36745580805813947664671e-09 
  -0.1099958304172500428430581    0.7159336755049872103029429 -2.845204521125208339446122e-09 
  -0.1099958295233919164379799    0.7159336744400762730933252 -1.187906498672522982233374e-09 
  -0.1099958311142214956168672    0.7159336757870649048385303 -1.809746951606384688113895e-09 
  -0.1099958235931268318852361    0.7159336718917602704337355 7.405756417123649871579361e-09 
  -0.1099958308857647282241743    0.7159336758958492197280066 1.534439324506648843721797e-08 
  -0.1099958280457383336115029    0.7159336717868169941425549 -1.999044089618114261646652e-09 
  -0.1099958285785337247508764    0.7159336765482107178826254 4.521073201362273481612602e-10 
  -0.1099958294377303136268864    0.7159336761404488935767176 -7.265054344742333932976826e-10 
  -0.1099958301089067197464644    0.7159336771811330990544775 -9.889447015482376212343606e-10 
  -0.1099958314617641708110796    0.7159336715591969602101585   9.7242650922702875714774e-10 
  -0.1099958309492572311460989    0.7159336762707945167605317 -3.597396461795856625339801e-09 
  -0.1099958299863762894998942    0.7159336749147016121241904 -2.111596965830699906310307e-09 
  -0.1099958307655026779059426    0.7159336763550124826949173 8.961518935431247508662997e-10 
  -0.1099958351789761673567014    0.7159336763067569719964922 -1.863416206424479991117808e-09 
  -0.1099958295335490970900949    0.7159336859897665883423201 1.742003455891271359777486e-09 
  -0.1099958318026763720576255    0.7159336768556151531228693  -4.0770356372710929346248e-09 
  -0.1099958302913075641749074    0.7159336759382817216845751 7.989286235246487522274549e-10 
  -0.1099958302715921543146749    0.7159336757751525448512098  4.46615416718414080799201e-09 
  -0.1099958310682836865046497    0.7159336741689210636963026 -3.234496750253793017718404e-10 
  -0.1099958290748948436243992    0.7159336757346533852697235  -4.5482046671905180552769e-10 
  -0.1099958308925318289928086     0.715933675722448925604624 -1.990623560279041351167489e-10 
  -0.1099958297666315115703739    0.7159336753401355224468716 6.604192131845606517237195e-09 
  -0.1099958316739478580981171     0.715933675800253355170355 -4.122801568327054544098387e-09 
  -0.1099958308579942756200154    0.7159336761724892639335849 2.194155212619120340328058e-09 
  -0.1099958347252651402747858    0.7159336728313563380510232 -1.227265260178359600400771e-09 
  -0.1099958307173143912116586    0.7159336761496677414839951  -1.0023052818095029715283e-09 
  -0.1099958351569774450684491    0.7159336757884688928754713 -2.379518077207225043150225e-09 
  -0.1099958309875381234910208    0.7159336760497707619066432 4.051828198574202635388604e-11 
  -0.1099958305449326434466428    0.7159336771735036464292534 -2.189233992996437871301592e-09 
  -0.1099958381814055558001186    0.7159336822464633653950727 4.371996352786077348116164e-09 
  -0.1099958272376623524824168     0.715933679173659021088838 8.461002530228396915112004e-09 
    -0.10999583142596643103861    0.7159336770212707534710717 -1.679301275567199994522661e-09 
  -0.1099958312345346994609585    0.7159336698716022295840844 -1.592191061464689689051473e-08 
  -0.1099958316115887679842444    0.7159336752132318126840005 -4.908310688715580986523078e-10 
   -0.109995830210098885504344    0.7159336761653684044759416 8.079910030227324945916492e-09 
  -0.1099958233507539462348035     0.715933671264713966664317  3.06498034507972375434311e-09 
  -0.1099958300164498581352746    0.7159336743078057452294161 2.270254410036008094874274e-09 
  -0.1099958282504941986523761    0.7159336735750940761136007 5.077667640176801723916094e-10 
  -0.1099958309123191813050369    0.7159336758672152356552942 2.179496113256682668826123e-10 
  -0.1099958314929177366492397    0.7159336754272750402705583 5.516965913039183584502981e-09 
  -0.1099958310542294426248588    0.7159336753633637195903816 1.893580465287307013318677e-09 
  -0.1099958392777546645202591    0.7159336745479690788940275 1.226789279750542084293544e-10 
  -0.1099958309479215079473846    0.7159336783911638413258061 2.394287470002324491924126e-09 
  -0.1099958317169908994515026    0.7159336774239364320493451 -1.051086361067444997096384e-08 
  -0.1099958318814173025002034    0.7159336778838064629937321 -2.230048122572747255444343e-09 
  -0.1099958290221636353356516     0.715933678102552817357207 -5.395861021512033232138981e-09 
  -0.1099958301396516124892599    0.7159336776307195782109716 5.090286364558539958466454e-09 
  -0.1099958307152672093431889    0.7159336761345087563057632 2.204048544545941728334763e-10 
   -0.109995830501163474601789    0.7159336755012712938395225 1.591804197473800251273194e-09 
  -0.1099958309391784461173103    0.7159336758833410030433697 -5.285713289118255984055362e-11 
  -0.1099958378016106796959406    0.7159336773242274132300622 1.364968808958334562172393e-08 
  -0.1099958303176714197180175    0.7159336758104780651379428 3.213834392661391653672842e-10 
  -0.1099958325564137778806995    0.7159336798698145987174257 -3.270590002713228482905036e-09 
  -0.1099958299011249140963997    0.7159336752729030806108312 -1.726249855486896897836403e-09 
  -0.1099958245751296859182844    0.7159336781754910283837035 3.876489355986368048917336e-09 
  -0.1099958244033803905770341    0.7159336736405229606461376 6.306079982713442456963276e-09 
  -0.1099958213317608901604672     0.715933677439911098083769 2.742600630834892142973838e-09 
  -0.1099958338396684331961239    0.7159336823628207335801221 -5.527733972000049103752591e-09 
  -0.1099958335041015533573017    0.7159336733608520075833326 1.741155392451429394198727e-08 
  -0.1099958293919679475081352    0.7159336744927400353333269 2.651282500745213569348082e-09 
  -0.1099958326066814706667429    0.7159336722688557363980522 -4.355027415950067564494493e-09 
  -0.1099958311010877515245809    0.7159336734157225601293817 1.481107196440043362330305e-08 
  -0.1099958330774078313352149    0.7159336761920680469728495 -1.019009563524234560957292e-08 
  -0.1099958300925990839491675     0.715933676088634896039764 -3.665554570668681549094665e-09 
  -0.1099958339209717861351123     0.715933685228091976071596 5.910129821705691261507148e-10 
  -0.1099958283997590768876762    0.7159336657410794169109636 -6.021463484917284960179939e-09 
  -0.1099958319005117507449754    0.7159336728885590250825999  4.56821173111788490458234e-09 
   -0.109995835310012585184225    0.7159336786396820473399316 7.474913487591703169771948e-09 
  -0.1099958322954815576055765    0.7159336758937897560173269 6.702361159213309259407913e-09 
  -0.1099958210875019437580136    0.7159336785728641627812863 4.778817743820603432777138e-09 
  -0.1099958325544869858214625    0.7159336754998661955795569 -8.709509821160652344810822e-09 
  -0.1099958320778357118152613    0.7159336774463729291539948 1.124603449656185322869757e-08 
  -0.1099958294696939953283277    0.7159336752634788414439981 -3.407181803222010729685437e-09 
  -0.1099958338105815613960914    0.7159336762994249481195652 -1.931470912598449621680741e-09 
   -0.109995829937492128891563     0.715933677028878667769618 1.085738614309962985032451e-09 
  -0.1099958306834903920545798    0.7159336758561797298128226 7.218022214829826306396637e-10 
  -0.1099958307125486756117283     0.715933683126640296734422 -2.478595674483252380733595e-09 
  -0.1099958310694191532252972    0.7159336759949653794521396 6.169959217288334759526967e-09 
  -0.1099958305563912552837991     0.715933671578907970811656 -1.531463689545657607799075e-10 
  -0.1099958313444093088717679    0.7159336768321589161701013 -7.325658561314216190365118e-09 
   -0.109995837942509028239968    0.7159336778783700339090501 -4.631443168528082290571898e-09 
  -0.1099958197141485127801275    0.7159336693412646779322017 -9.33317565381944576576636e-09 
   -0.109995831662565560216116    0.7159336755115038863905852 -1.088963771310952616815792e-08 
   -0.109995832718991687348975    0.7159336750629933243672554 -8.061937756213157773881696e-10 
    -0.10999583207544130769584    0.7159336754924766621499543 -5.462138995734873966589553e-10 
  -0.1099958302518213026921501     0.715933674879680626013112 -3.196044722735010753162971e-10 
  -0.1099958308172675341962687    0.7159336762738194304134254 4.789318181641549975542685e-10 
  -0.1099958292524905734133256    0.7159336733569888755468469 -1.236485168538024533104166e-08 
  -0.1099958356024782618609592    0.7159336803413559602304872 -5.846170723618728431633251e-09 
  -0.1099958302182307695593622    0.7159336765051226292300157 -2.922412125294453445103358e-09 
   -0.109995830932486951536653    0.7159336759443410969083743 -3.858452492371351636233694e-10 

VERTICES 100 200
1 0 
1 1 
1 2 
1 3 
1 4 
1 5 
1 6 
1 7 
1 8 
1 9 
1 10 
1 11 
1 12 
1 13 
1 14 
1 15 
1 16 
1 17 
1 18 
1 19 
1 20 
1 21 
1 22 
1 23 
1 24 
1 25 
1 26 
1 27 
1 28 
1 29 
1 30 
1 31 
1 32 
1 33 
1 34 
1 35 
1 36 
1 37 
1 38 
1 39 
1 40 
1 41 
1 42 
1 43 
1 44 
1 45 
1 46 
1 47 
1 48 
1 49 
1 50 
1 51 
1 52 
1 53 
1 54 
1 55 
1 56 
1 57 
1 58 
1 59 
1 60 
1 61 
1 62 
1 63 
1 64 
1 65 
1 66 
1 67 
1 68 
1 69 
1 70 
1 71 
1 72 
1 73 
1 74 
1 75 
1 76 
1 77 
1 78 
1 79 
1 80 
1 81 
1 82 
1 83 
1 84 
1 85 
1 86 
1 87 
1 88 
1 89 
1 90 
1 91 
1 92 
1 93 
1 94 
1 95 
1 96 
1 97 
1 98 
1 99 

POINT_DATA 100
SCALARS mass double
LOOKUP_TABLE default
1.73e-21 1.12427e-21 1.32911e-21 1.25404e-21 1.06292e-21 1.8956e-23 3.53344e-22 1.51088e-21 
3.02177e-21 2.88234e-21 9.80782e-22 1.07215e-21 7.3637e-22 7.8824e-22 8.00877e-22 6.82632e-22 1.42165e-22 
1.65722e-22 1.43879e-21 3.891e-23 2.30574e-21 1.29286e-21 8.06913e-23 2.78923e-22 5.16361e-22 9.58425e-22 
6.65774e-22 9.53415e-22 1.46097e-22 4.03817e-22 1.54344e-22 1.91142e-22 7.93594e-22 6.20692e-22 2.36923e-22 
5.88366e-23 1.91883e-22 1.4845e-21 1.11573e-21 2.1675e-21 1.82775e-22 3.40437e-22 2.90717e-21 7.43152e-23 
3.0329e-22 2.24419e-21 2.60635e-21 5.71495e-22 8.46092e-23 8.25336e-22 2.22364e-22 3.28091e-21 1.45087e-22 
2.2637e-21 1.21337e-22 4.74809e-23 1.97622e-21 9.22105e-22 3.03529e-23 3.3825e-22 2.98728e-22 6.40146e-23 
1.10585e-22 8.72785e-22 5.7651e-22 1.62878e-21 2.92217e-21 1.53511e-22 3.56927e-22 5.79621e-22 4.44902e-22 
1.11997e-22 3.45991e-22 4.67646e-22 1.17058e-21 8.5393e-22 4.97676e-22 1.60505e-21 8.97455e-22 5.53307e-22 
1.77748e-21 1.24938e-21 2.35781e-22 4.23764e-22 9.22679e-22 2.19919e-21 9.09236e-22 3.99121e-22 6.0571e-22 
4.22818e-22 1.04685e-21 9.78535e-22 3.14472e-22 1.26269e-21 4.35505e-22 3.11512e-21 2.00452e-22 8.64297e-23 
2.69132e-22 5.98301e-22 
