# vtk DataFile Version 3.0
vtk output
ASCII
DATASET POLYDATA
POINTS 4144 float
-31.0671 -16.5343 0 -31.0493 -16.5326 0 -31.0111 -16.5291 0 
-30.9956 -16.5308 0 -30.9476 -16.5358 0 -30.9399 -16.5366 0 
-30.8946 -16.5349 0 -30.8805 -16.5343 0 -30.8383 -16.53 0 
-30.8251 -16.5285 0 -30.7761 -16.5175 0 -30.7753 -16.5172 0 
-30.7323 -16.502 0 -30.6939 -16.482 0 -30.6931 -16.4815 0 
-30.6592 -16.4589 0 -30.6275 -16.4333 0 -30.5981 -16.4057 0 
-30.5703 -16.3769 0 -30.5435 -16.3471 0 -30.5174 -16.3169 0 
-30.4917 -16.2862 0 -30.4669 -16.2548 0 -30.4448 -16.2211 0 
-30.4286 -16.1825 0 -30.4256 -16.1626 0 -30.4221 -16.1358 0 
-30.4249 -16.0995 0 -30.4275 -16.079 0 -30.4338 -16.048 0 
-30.4428 -16.014 0 -30.4589 -15.9534 0 -30.461 -15.9465 0 
-30.446 -16.0003 0 -30.4694 -15.9037 0 -30.4734 -15.8838 0 
-30.4749 -15.8481 0 -30.4753 -15.8301 0 -30.4668 -15.785 0 
-30.4599 -15.7679 0 -30.4505 -15.7464 0 -30.4293 -15.7121 0 
-30.4054 -15.6799 0 -30.3801 -15.6489 0 -30.354 -15.6186 0 
-30.3259 -15.59 0 -30.2937 -15.5648 0 -30.2865 -15.5612 0 
-30.2542 -15.5457 0 -30.2132 -15.5362 0 -30.2055 -15.5343 0 
-30.1596 -15.5345 0 -30.1434 -15.5343 0 -30.1123 -15.5403 0 
-30.0667 -15.5482 0 -30.0639 -15.5487 0 -30.0259 -15.5618 0 
-29.9853 -15.5757 0 -29.9578 -15.5856 0 -29.946 -15.5911 0 
-29.9095 -15.6097 0 -29.874 -15.6297 0 -29.8396 -15.6509 0 
-29.806 -15.6731 0 -29.7727 -15.6956 0 -29.7394 -15.7181 0 
-29.7313 -15.7234 0 -29.7058 -15.7404 0 -29.6718 -15.7621 0 
-29.6373 -15.7831 0 -29.6022 -15.8035 0 -29.5666 -15.8233 0 
-29.5306 -15.8427 0 -29.5206 -15.848 0 -29.4947 -15.862 0 
-29.4586 -15.8812 0 -29.4222 -15.9001 0 -29.3854 -15.9185 0 
-29.359 -15.9314 0 -29.3484 -15.9366 0 -29.3115 -15.9549 0 
-29.2742 -15.9726 0 -29.2363 -15.9896 0 -29.2178 -15.9977 0 
-29.198 -16.0062 0 -29.1589 -16.0219 0 -29.1185 -16.0359 0 
-29.1051 -16.0401 0 -29.0767 -16.0484 0 -29.0329 -16.0584 0 
-29.0178 -16.0611 0 -28.9871 -16.066 0 -28.9448 -16.0701 0 
-28.9388 -16.0706 0 -28.8885 -16.0729 0 -28.8792 -16.073 0 
-28.8362 -16.0728 0 -28.8181 -16.0721 0 -28.7819 -16.0703 0 
-28.7599 -16.0687 0 -28.726 -16.0659 0 -28.7037 -16.0636 0 
-28.6686 -16.0597 0 -28.6491 -16.0572 0 -28.6099 -16.0521 0 
-28.5955 -16.0499 0 -28.5503 -16.0432 0 -28.5429 -16.0419 0 
-28.4908 -16.0334 0 -28.4897 -16.0332 0 -28.4392 -16.0245 0 
-28.4287 -16.0227 0 -28.3881 -16.0151 0 -28.3667 -16.0111 0 
-28.3378 -16.0052 0 -28.3035 -15.998 0 -28.2882 -15.9946 0 
-28.2396 -15.9832 0 -28.2387 -15.9829 0 -28.1915 -15.9713 0 
-28.1724 -15.9662 0 -28.1446 -15.9584 0 -28.103 -15.9457 0 
-28.0991 -15.9444 0 -28.0543 -15.9298 0 -28.0304 -15.9214 0 
-28.0107 -15.9142 0 -27.9681 -15.8977 0 -27.9533 -15.8917 0 
-27.9262 -15.8806 0 -27.8853 -15.8627 0 -27.8715 -15.8565 0 
-27.8449 -15.8444 0 -27.8053 -15.8255 0 -27.7848 -15.8153 0 
-27.7661 -15.8062 0 -27.7274 -15.7864 0 -27.6928 -15.7679 0 
-27.6894 -15.7661 0 -27.6513 -15.7459 0 -27.6138 -15.7251 0 
-27.5965 -15.7154 0 -27.5763 -15.7044 0 -27.5386 -15.6838 0 
-27.5011 -15.663 0 -27.4998 -15.6623 0 -27.4627 -15.6431 0 
-27.424 -15.6233 0 -27.4083 -15.6156 0 -27.3843 -15.6044 0 
-27.3437 -15.5863 0 -27.325 -15.5784 0 -27.3016 -15.5694 0 
-27.2583 -15.5535 0 -27.2492 -15.5504 0 -27.213 -15.5393 0 
-27.1794 -15.5294 0 -27.1665 -15.5261 0 -27.1182 -15.5145 0 
-27.1138 -15.5135 0 -27.0675 -15.5048 0 -27.052 -15.502 0 
-27.0149 -15.4967 0 -26.9928 -15.4937 0 -26.9603 -15.4903 0 
-26.9358 -15.488 0 -26.9034 -15.4859 0 -26.8807 -15.4845 0 
-26.8442 -15.4834 0 -26.8271 -15.4829 0 -26.7826 -15.4828 0 
-26.7748 -15.4828 0 -26.7237 -15.4841 0 -26.7185 -15.4844 0 
-26.6738 -15.4869 0 -26.6515 -15.4884 0 -26.6245 -15.4904 0 
-26.583 -15.4937 0 -26.5757 -15.4943 0 -26.5275 -15.4991 0 
-26.5124 -15.5007 0 -26.4797 -15.5043 0 -26.4412 -15.5082 0 
-26.4316 -15.5093 0 -26.3836 -15.5143 0 -26.3703 -15.5155 0 
-26.3353 -15.519 0 -26.3009 -15.5215 0 -26.2862 -15.5227 0 
-26.2364 -15.5255 0 -26.2339 -15.5256 0 -26.186 -15.5277 0 
-26.1689 -15.5279 0 -26.1345 -15.5285 0 -26.1065 -15.528 0 
-26.0816 -15.5277 0 -26.0467 -15.526 0 -26.0271 -15.525 0 
-25.9895 -15.5218 0 -25.9709 -15.5202 0 -25.9346 -15.5156 0 
-25.9125 -15.5128 0 -25.8819 -15.5077 0 -25.8516 -15.5025 0 
-25.8311 -15.4981 0 -25.7878 -15.4887 0 -25.7819 -15.4871 0 
-25.7345 -15.4747 0 -25.7207 -15.471 0 -25.6887 -15.461 0 
-25.6487 -15.4473 0 -25.6445 -15.4458 0 -25.6022 -15.4291 0 
-25.569 -15.4146 0 -25.5614 -15.4111 0 -25.5222 -15.3918 0 
-25.4843 -15.3714 0 -25.4774 -15.3676 0 -25.4471 -15.3504 0 
-25.4107 -15.3288 0 -25.3745 -15.3069 0 -25.3739 -15.3065 0 
-25.3382 -15.2851 0 -25.3024 -15.263 0 -25.2675 -15.2401 0 
-25.2637 -15.2374 0 -25.2337 -15.2162 0 -25.2017 -15.1908 0 
-25.1715 -15.164 0 -25.1427 -15.1359 0 -25.115 -15.107 0 
-25.088 -15.0775 0 -25.0615 -15.0474 0 -25.0355 -15.0171 0 
-25.0097 -14.9865 0 -24.9844 -14.9556 0 -24.9602 -14.9236 0 
-24.9382 -14.8898 0 -24.9195 -14.8533 0 -24.9078 -14.8132 0 
-24.9073 -14.8114 0 -24.9085 -14.7582 0 -24.9253 -14.7097 0 
-24.9458 -14.6746 0 -24.9096 -14.7532 0 -25.2281 -14.3861 0 
-25.2316 -14.3826 0 -25.199 -14.4137 0 -25.1698 -14.4411 0 
-25.1405 -14.4684 0 -25.1112 -14.4956 0 -25.082 -14.523 0 
-25.053 -14.5508 0 -25.0246 -14.5792 0 -24.9971 -14.6085 0 
-24.9708 -14.6395 0 -24.9468 -14.673 0 -25.3617 -14.2342 0 
-25.3838 -14.2027 0 -25.3366 -14.2666 0 -25.3105 -14.2977 0 
-25.2836 -14.3278 0 -25.2561 -14.3573 0 -25.4036 -14.1597 0 
-25.4161 -14.1234 0 -25.3852 -14.2001 0 -25.4173 -14.1139 0 
-25.4185 -14.0692 0 -25.4143 -14.048 0 -25.4082 -14.0256 0 
-25.3912 -13.9877 0 -25.3705 -13.9528 0 -25.3476 -13.9198 0 
-25.3232 -13.8881 0 -25.2979 -13.8571 0 -25.272 -13.8266 0 
-25.2449 -13.7972 0 -23.5352 -15.2318 0 -23.5118 -15.2651 0 
-23.4852 -15.2956 0 -23.4568 -15.3239 0 -23.4272 -15.3509 0 
-23.3968 -15.3769 0 -23.3651 -15.4013 0 -23.3306 -15.4225 0 
-23.2925 -15.4393 0 -23.2853 -15.4415 0 -25.2144 -13.7705 0 
-23.5608 -15.1581 0 -23.5542 -15.1912 0 -23.5356 -15.2312 0 
-23.2521 -15.4533 0 -23.2102 -15.4657 0 -23.1873 -15.4715 0 
-25.1784 -13.7485 0 -23.5581 -15.1082 0 -23.562 -15.1382 0 
-23.1679 -15.4774 0 -23.1259 -15.4896 0 -23.0928 -15.4986 0 
-25.157 -13.7414 0 -25.131 -13.7361 0 -23.546 -15.0661 0 
-23.0836 -15.5014 0 -23.0427 -15.5148 0 -23.0012 -15.5276 0 
-22.9927 -15.5304 0 -25.1016 -13.7376 0 -25.0583 -13.7482 0 
-25.0502 -13.7517 0 -24.7713 -13.9857 0 -24.757 -14.0113 0 
-24.7346 -14.0469 0 -24.709 -14.0786 0 -24.681 -14.1074 0 
-24.6514 -14.1343 0 -24.621 -14.1604 0 -24.5902 -14.1859 0 
-24.5586 -14.2104 0 -24.5255 -14.2332 0 -24.4903 -14.2535 0 
-24.4526 -14.2708 0 -24.418 -14.2822 0 -23.5292 -15.028 0 
-23.5388 -15.0484 0 -22.9609 -15.5418 0 -22.9204 -15.5558 0 
-22.887 -15.5669 0 -25.0204 -13.7653 0 -24.9849 -13.7852 0 
-24.9511 -13.8071 0 -24.9187 -13.8307 0 -24.8874 -13.8556 0 
-24.8568 -13.8814 0 -24.8273 -13.9084 0 -24.8 -13.9382 0 
-24.7773 -13.9733 0 -24.4114 -14.2839 0 -24.365 -14.2909 0 
-24.3432 -14.2927 0 -23.5098 -14.992 0 -22.8797 -15.5695 0 
-22.8398 -15.5841 0 -22.7992 -15.5981 0 -22.7798 -15.6046 0 
-24.3146 -14.293 0 -24.2811 -14.2926 0 -23.4894 -14.957 0 
-22.7589 -15.6122 0 -22.7187 -15.6265 0 -22.6779 -15.6402 0 
-22.6733 -15.6417 0 -24.2614 -14.2918 0 -24.2216 -14.2903 0 
-23.4685 -14.9223 0 -22.6378 -15.6545 0 -22.5973 -15.6685 0 
-22.5675 -15.6783 0 -24.2076 -14.2899 0 -24.1603 -14.2896 0 
-23.4479 -14.8874 0 -22.5565 -15.6821 0 -22.516 -15.696 0 
-22.4749 -15.7093 0 -22.4643 -15.7127 0 -24.1553 -14.2897 0 
-24.1054 -14.2926 0 -24.0933 -14.2936 0 -23.4285 -14.8515 0 
-23.4328 -14.8598 0 -22.4339 -15.7226 0 -22.3924 -15.7354 0 
-22.3559 -15.7541 0 -24.058 -14.2982 0 -24.0185 -14.3042 0 
-23.412 -14.8131 0 -24.0119 -14.3055 0 -23.968 -14.3155 0 
-23.9323 -14.3243 0 -23.3988 -14.7719 0 -23.925 -14.3264 0 
-23.8839 -14.3397 0 -23.8434 -14.3537 0 -23.8282 -14.3594 0 
-23.3939 -14.7238 0 -23.3949 -14.7524 0 -23.8045 -14.3695 0 
-23.7667 -14.3867 0 -23.7297 -14.4048 0 -23.6936 -14.4239 0 
-23.6792 -14.4322 0 -23.4099 -14.6582 0 -23.3967 -14.6923 0 
-23.6588 -14.4448 0 -23.6254 -14.4671 0 -23.5928 -14.4905 0 
-23.5611 -14.5149 0 -23.5299 -14.54 0 -23.4991 -14.5655 0 
-23.4687 -14.5915 0 -23.4396 -14.619 0 -23.4137 -14.6504 0 
-22.4284 -15.7161 0 -22.3924 -15.7354 0 -22.3659 -15.743 0 
-22.3503 -15.7475 0 -22.3078 -15.759 0 -22.2751 -15.767 0 
-22.2644 -15.7695 0 -22.22 -15.7788 0 -22.1929 -15.7838 0 
-22.1743 -15.7866 0 -22.1269 -15.7924 0 -22.1195 -15.7931 0 
-22.0774 -15.7956 0 -22.0537 -15.7962 0 -22.0249 -15.7952 0 
-21.9948 -15.7934 0 -21.9682 -15.7899 0 -21.9417 -15.7858 0 
-21.9052 -15.777 0 -21.8935 -15.774 0 -21.8495 -15.7587 0 
-21.8302 -15.7499 0 -21.8092 -15.7403 0 -21.7723 -15.719 0 
-21.7387 -15.6951 0 -21.7157 -15.6756 0 -21.7076 -15.6689 0 
-21.6788 -15.6409 0 -21.6516 -15.6115 0 -21.6255 -15.5812 0 
-21.5999 -15.5504 0 -21.5746 -15.5195 0 -21.5489 -15.4888 0 
-21.5226 -15.4587 0 -21.4939 -15.4305 0 -21.4598 -15.4069 0 
-21.4275 -15.3943 0 -21.4174 -15.3904 0 -21.3665 -15.3808 0 
-21.3637 -15.3806 0 -21.312 -15.3744 0 -21.3057 -15.3737 0 
-21.2576 -15.3678 0 -21.2476 -15.3666 0 -21.2035 -15.361 0 
-21.1895 -15.3596 0 -21.1483 -15.3551 0 -21.1327 -15.3541 0 
-21.0904 -15.3515 0 -21.0784 -15.3516 0 -21.0277 -15.3519 0 
-21.0265 -15.352 0 -20.9789 -15.3575 0 -20.9558 -15.36 0 
-20.9331 -15.3652 0 -20.8893 -15.3752 0 -20.8698 -15.3799 0 
-20.8477 -15.3878 0 -20.8079 -15.4026 0 -20.7682 -15.4176 0 
-20.7577 -15.4218 0 -20.7306 -15.4349 0 -20.6936 -15.453 0 
-20.6567 -15.4712 0 -20.6197 -15.4895 0 -20.6076 -15.4956 0 
-20.5831 -15.508 0 -20.546 -15.5261 0 -20.5078 -15.5427 0 
-20.4748 -15.5548 0 -20.4674 -15.5567 0 -20.4217 -15.5645 0 
-20.3997 -15.5656 0 -20.3638 -15.5577 0 -20.3513 -15.554 0 
-20.3144 -15.5328 0 -20.2833 -15.5066 0 -20.2554 -15.4778 0 
-20.229 -15.4478 0 -20.2036 -15.4169 0 -20.1802 -15.3843 0 
-20.1612 -15.348 0 -20.1482 -15.3067 0 -20.1471 -15.2995 0 
-20.1395 -15.2618 0 -20.1352 -15.2231 0 -20.1338 -15.2144 0 
-20.1284 -15.1667 0 -20.127 -15.1511 0 -20.123 -15.119 0 
[...]
POINT_DATA 4144
SCALARS Tr000_H1p___ double
LOOKUP_TABLE default
0.01 0.01 0.01 0.01 0.01 0.01 0.01 0.01 0.01 
0.01 0.01 0.01 0.01 0.01 0.01 0.01 0.01 0.01 
0.01 0.01 0.01 0.01 0.01 0.01 0.01 0.01 0.01 
0.01 0.01 0.01 0.01 0.01 0.01 0.01 0.01 0.01 
0.01 0.01 0.01 0.01 0.01 0.01 0.01 0.01 0.01 
0.01 0.01 0.01 0.01 0.01 0.01 0.01 0.01 0.01 
0.01 0.01 0.01 0.01 0.01 0.01 0.01 0.01 0.01 
0.01 0.01 0.01 0.01 0.01 0.01 0.01 0.01 0.01 
0.01 0.01 0.01 0.01 0.01 0.01 0.01 0.01 0.01 
0.01 0.01 0.01 0.01 0.01 0.01 0.01 0.01 0.01 
0.01 0.01 0.01 0.01 0.01 0.01 0.01 0.01 0.01 
0.01 0.01 0.01 0.01 0.01 0.01 0.01 0.01 0.01 
0.01 0.01 0.01 0.01 0.01 0.01 0.01 0.01 0.01 
0.01 0.01 0.01 0.01 0.01 0.01 0.01 0.01 0.01 
0.01 0.01 0.01 0.01 0.01 0.01 0.01 0.01 0.01 
0.01 0.01 0.01 0.01 0.01 0.01 0.01 0.01 0.01 
0.01 0.01 0.01 0.01 0.01 0.01 0.01 0.01 0.01 
0.01 0.01 0.01 0.01 0.01 0.01 0.01 0.01 0.01 
0.01 0.01 0.01 0.01 0.01 0.01 0.01 0.01 0.01 
0.01 0.01 0.01 0.01 0.01 0.01 0.01 0.01 0.01 
0.01 0.01 0.01 0.01 0.01 0.01 0.01 0.01 0.01 
0.01 0.01 0.01 0.01 0.01 0.01 0.01 0.01 0.01 
0.01 0.01 0.01 0.01 0.01 0.01 0.01 0.01 0.01 
0.01 0.01 0.01 0.01 0.01 0.01 0.01 0.01 0.01 
0.01 0.01 0.01 0.01 0.01 0.01 0.01 0.01 0.01 
0.01 0.01 0.01 0.01 0.01 0.01 0.01 0.01 0.01 
0.01 0.01 0.01 0.01 0.01 0.01 0.01 0.01 0.01 
0.01 0.01 0.01 0.01 0.01 0.01 0.01 0.01 0.01 
0.01 0.01 0.01 0.01 0.01 0.01 0.01 0.01 0.01 
0.01 0.01 0.01 0.01 0.01 0.01 0.01 0.01 0.01 
0.01 0.01 0.01 0.01 0.01 0.01 0.01 0.01 0.01 
0.01 0.01 0.01 0.01 0.01 0.01 0.01 0.01 0.01 
0.01 0.01 0.01 0.01 0.01 0.01 0.01 0.01 0.01 
0.01 0.01 0.01 0.01 0.01 0.01 0.01 0.01 0.01 
0.01 0.01 0.01 0.01 0.01 0.01 0.01 0.01 0.01 
0.01 0.01 0.01 0.01 0.01 0.01 0.01 0.01 0.01 
0.01 0.01 0.01 0.01 0.01 0.01 0.01 0.01 0.01 
0.01 0.01 0.01 0.01 0.01 0.01 0.01 0.01 0.01 
0.01 0.01 0.01 0.01 0.01 0.01 0.01 0.01 0.01 
0.01 0.01 0.01 0.01 0.01 0.01 0.01 0.01 0.01 
0.01 0.01 0.01 0.01 0.01 0.01 0.01 0.01 0.01 
0.01 0.01 0.01 0.01 0.01 0.01 0.01 0.01 0.01 
0.01 0.01 0.01 0.01 0.01 0.01 0.01 0.01 0.01 
0.01 0.01 0.01 0.01 0.01 0.01 0.01 0.01 0.01 
0.01 0.01 0.01 0.01 0.01 0.01 0.01 0.01 0.01 
0.01 0.01 0.01 0.01 0.01 0.01 0.01 0.01 0.01 
0.01 0.01 0.01 0.01 0.01 0.01 0.01 0.01 0.01 
0.01 0.01 0.01 0.01 0.01 0.01 0.01 0.01 0.01 
0.01 0.01 0.01 0.01 0.01 0.01 0.01 0.01 0.01 
0.01 0.01 0.01 0.01 0.01 0.01 0.01 0.01 0.01 
0.01 0.01 0.01 0.01 0.01 0.01 0.01 0.01 0.01 
0.01 0.01 0.01 0.01 0.01 0.01 0.01 0.01 0.01 
0.01 0.01 0.01 0.01 0.01 0.01 0.01 0.01 0.01 
0.01 0.01 0.01 0.01 0.01 0.01 0.01 0.01 0.01 
0.01 0.01 0.01 0.01 0.01 0.01 0.01 0.01 0.01 
0.01 0.01 0.01 0.01 0.01 0.01 0.01 0.01 0.01 
0.01 0.01 0.01 0.01 0.01 0.01 0.01 0.01 0.01 
0.01 0.01 0.01 0.01 0.01 0.01 0.01 0.01 0.01 
0.01 0.01 0.01 0.01 0.01 0.01 0.01 0.01 0.01 
0.01 0.01 0.01 0.01 0.01 0.01 0.01 0.01 0.01 
0.01 0.01 0.01 0.01 0.01 0.01 0.01 0.01 0.01 
0.01 0.01 0.01 0.01 0.01 0.01 0.01 0.01 0.01 
0.01 0.01 0.01 0.01 0.01 0.01 0.01 0.01 0.01 
0.01 0.01 0.01 0.01 0.01 0.01 0.01 0.01 0.01 
0.01 0.01 0.01 0.01 0.01 0.01 0.01 0.01 0.01 
0.01 0.01 0.01 0.01 0.01 0.01 0.01 0.01 0.01 
0.01 0.01 0.01 0.01 0.01 0.01 0.01 0.01 0.01 
0.01 0.01 0.01 0.01 0.01 0.01 0.01 0.01 0.01 
0.01 0.01 0.01 0.01 0.01 0.01 0.01 0.01 0.01 
0.01 0.01 0.01 0.01 0.01 0.01 0.01 0.01 0.01 
0.01 0.01 0.01 0.01 0.01 0.01 0.01 0.01 0.01 
0.01 0.01 0.01 0.01 0.01 0.01 0.01 0.01 0.01 
0.01 0.01 0.01 0.01 0.01 0.01 0.01 0.01 0.01 
0.01 0.01 0.01 0.01 0.01 0.01 0.01 0.01 0.01 
0.01 0.01 0.01 0.01 0.01 0.01 0.01 0.01 0.01 
0.01 0.01 0.01 0.01 0.01 0.01 0.01 0.01 0.01 
0.01 0.01 0.01 0.01 0.01 0.01 0.01 0.01 0.01 
0.01 0.01 0.01 0.01 0.01 0.01 0.01 0.01 0.01 
0.01 0.01 0.01 0.01 0.01 0.01 0.01 0.01 0.01 
0.01 0.01 0.01 0.01 0.01 0.01 0.01 0.01 0.01 
0.01 0.01 0.01 0.01 0.01 0.01 0.01 0.01 0.01 
0.01 0.01 0.01 0.01 0.01 0.01 0.01 0.01 0.01 
0.01 0.01 0.01 0.01 0.01 0.01 0.01 0.01 0.01 
0.01 0.01 0.01 0.01 0.01 0.01 0.01 0.01 0.01 
0.01 0.01 0.01 0.01 0.01 0.01 0.01 0.01 0.01 
0.01 0.01 0.01 0.01 0.01 0.01 0.01 0.01 0.01 
0.01 0.01 0.01 0.01 0.01 0.01 0.01 0.01 0.01 
0.01 0.01 0.01 0.01 0.01 0.01 0.01 0.01 0.01 
0.01 0.01 0.01 0.01 0.01 0.01 0.01 0.01 0.01 
0.01 0.01 0.01 0.01 0.01 0.01 0.01 0.01 0.01 
0.01 0.01 0.01 0.01 0.01 0.01 0.01 0.01 0.01 
0.01 0.01 0.01 0.01 0.01 0.01 0.01 0.01 0.01 
0.01 0.01 0.01 0.01 0.01 0.01 0.01 0.01 0.01 
0.01 0.01 0.01 0.01 0.01 0.01 0.01 0.01 0.01 
0.01 0.01 0.01 0.01 0.01 0.01 0.01 0.01 0.01 
0.01 0.01 0.01 0.01 0.01 0.01 0.01 0.01 0.01 
0.01 0.01 0.01 0.01 0.01 0.01 0.01 0.01 0.01 
0.01 0.01 0.01 0.01 0.01 0.01 0.01 0.01 0.01 
0.01 0.01 0.01 0.01 0.01 0.01 0.01 0.01 0.01 
0.01 0.01 0.01 0.01 0.01 0.01 0.01 0.01 0.01 
0.01 0.01 0.01 0.01 0.01 0.01 0.01 0.01 0.01 
0.01 0.01 0.01 0.01 0.01 0.01 0.01 0.01 0.01 
0.01 0.01 0.01 0.01 0.01 0.01 0.01 0.01 0.01 
0.01 0.01 0.01 0.01 0.01 0.01 0.01 0.01 0.01 
0.01 0.01 0.01 0.01 0.01 0.01 0.01 0.01 0.01 
0.01 0.01 0.01 0.01 0.01 0.01 0.01 0.01 0.01 
0.01 0.01 0.01 0.01 0.01 0.01 0.01 0.01 0.01 
0.01 0.01 0.01 0.01 0.01 0.01 0.01 0.01 0.01 
0.01 0.01 0.01 0.01 0.01 0.01 0.01 0.01 0.01 
0.01 0.01 0.01 0.01 0.01 0.01 0.01 0.01 0.01 
0.01 0.01 0.01 0.01 0.01 0.01 0.01 0.01 0.01 
0.01 0.01 0.01 0.01 0.01 0.01 0.01 0.01 0.01 
0.01 0.01 0.01 0.01 0.01 0.01 0.01 0.01 0.01 
0.01 0.01 0.01 0.01 0.01 0.01 0.01 0.01 0.01 
0.01 0.01 0.01 0.01 0.01 0.01 0.01 0.01 0.01 
0.01 0.01 0.01 0.01 0.01 0.01 0.01 0.01 0.01 
0.01 0.01 0.01 0.01 0.01 0.01 0.01 0.01 0.01 
0.01 0.01 0.01 0.01 0.01 0.01 0.01 0.01 0.01 
0.01 0.01 0.01 0.01 0.01 0.01 0.01 0.01 0.01 
0.01 0.01 0.01 0.01 0.01 0.01 0.01 0.01 0.01 
0.01 0.01 0.01 0.01 0.01 0.01 0.01 0.01 0.01 
0.01 0.01 0.01 0.01 0.01 0.01 0.01 0.01 0.01 
0.01 0.01 0.01 0.01 0.01 0.01 0.01 0.01 0.01 
0.01 0.01 0.01 0.01 0.01 0.01 0.01 0.01 0.01 
0.01 0.01 0.01 0.01 0.01 0.01 0.01 0.01 0.01 
0.01 0.01 0.01 0.01 0.01 0.01 0.01 0.01 0.01 
0.01 0.01 0.01 0.01 0.01 0.01 0.01 0.01 0.01 
0.01 0.01 0.01 0.01 0.01 0.01 0.01 0.01 0.01 
0.01 0.01 0.01 0.01 0.01 0.01 0.01 0.01 0.01 
0.01 0.01 0.01 0.01 0.01 0.01 0.01 0.01 0.01 
0.01 0.01 0.01 0.01 0.01 0.01 0.01 0.01 0.01 
0.01 0.01 0.01 0.01 0.01 0.01 0.01 0.01 0.01 
0.01 0.01 0.01 0.01 0.01 0.01 0.01 0.01 0.01 
0.01 0.01 0.01 0.01 0.01 0.01 0.01 0.01 0.01 
0.01 0.01 0.01 0.01 0.01 0.01 0.01 0.01 0.01 
0.01 0.01 0.01 0.01 0.01 0.01 0.01 0.01 0.01 
0.01 0.01 0.01 0.01 0.01 0.01 0.01 0.01 0.01 
0.01 0.01 0.01 0.01 0.01 0.01 0.01 0.01 0.01 
0.01 0.01 0.01 0.01 0.01 0.01 0.01 0.01 0.01 
0.01 0.01 0.01 0.01 0.01 0.01 0.01 0.01 0.01 
0.01 0.01 0.01 0.01 0.01 0.01 0.01 0.01 0.01 
0.01 0.01 0.01 0.01 0.01 0.01 0.01 0.01 0.01 
0.01 0.01 0.01 0.01 0.01 0.01 0.01 0.01 0.01 
0.01 0.01 0.01 0.01 0.01 0.01 0.01 0.01 0.01 
0.01 0.01 0.01 0.01 0.01 0.01 0.01 0.01 0.01 
0.01 0.01 0.01 0.01 0.01 0.01 0.01 0.01 0.01 
0.01 0.01 0.01 0.01 0.01 0.01 0.01 0.01 0.01 
0.01 0.01 0.01 0.01 0.01 0.01 0.01 0.01 0.01 
0.01 0.01 0.01 0.01 0.01 0.01 0.01 0.01 0.01 
0.01 0.01 0.01 0.01 0.01 0.01 0.01 0.01 0.01 
0.01 0.01 0.01 0.01 0.01 0.01 0.01 0.01 0.01 
0.01 0.01 0.01 0.01 0.01 0.01 0.01 0.01 0.01 
0.01 0.01 0.01 0.01 0.01 0.01 0.01 0.01 0.01 
0.01 0.01 0.01 0.01 0.01 0.01 0.01 0.01 0.01 
0.01 0.01 0.01 0.01 0.01 0.01 0.01 0.01 0.01 
0.01 0.01 0.01 0.01 0.01 0.01 0.01 0.01 0.01 
0.01 0.01 0.01 0.01 0.01 0.01 0.01 0.01 0.01 
0.01 0.01 0.01 0.01 0.01 0.01 0.01 0.01 0.01 
0.01 0.01 0.01 0.01 0.01 0.01 0.01 0.01 0.01 
0.01 0.01 0.01 0.01 0.01 0.01 0.01 0.01 0.01 
0.01 0.01 0.01 0.01 0.01 0.01 0.01 0.01 0.01 
0.01 0.01 0.01 0.01 0.01 0.01 0.01 0.01 0.01 
0.01 0.01 0.01 0.01 0.01 0.01 0.01 0.01 0.01 
0.01 0.01 0.01 0.01 0.01 0.01 0.01 0.01 0.01 
0.01 0.01 0.01 0.01 0.01 0.01 0.01 0.01 0.01 
0.01 0.01 0.01 0.01 0.01 0.01 0.01 0.01 0.01 
0.01 0.01 0.01 0.01 0.01 0.01 0.01 0.01 0.01 
0.01 0.01 0.01 0.01 0.01 0.01 0.01 0.01 0.01 
0.01 0.01 0.01 0.01 0.01 0.01 0.01 0.01 0.01 
0.01 0.01 0.01 0.01 0.01 0.01 0.01 0.01 0.01 
0.01 0.01 0.01 0.01 0.01 0.01 0.01 0.01 0.01 
0.01 0.01 0.01 0.01 0.01 0.01 0.01 0.01 0.01 
0.01 0.01 0.01 0.01 0.01 0.01 0.01 0.01 0.01 
0.01 0.01 0.01 0.01 0.01 0.01 0.01 0.01 0.01 
0.01 0.01 0.01 0.01 0.01 0.01 0.01 0.01 0.01 
0.01 0.01 0.01 0.01 0.01 0.01 0.01 0.01 0.01 
0.01 0.01 0.01 0.01 0.01 0.01 0.01 0.01 0.01 
0.01 0.01 0.01 0.01 0.01 0.01 0.01 0.01 0.01 
0.01 0.01 0.01 0.01 0.01 0.01 0.01 0.01 0.01 
0.01 0.01 0.01 0.01 0.01 0.01 0.01 0.01 0.01 
0.01 0.01 0.01 0.01 0.01 0.01 0.01 0.01 0.01 
0.01 0.01 0.01 0.01 0.01 0.01 0.01 0.01 0.01 
0.01 0.01 0.01 0.01 0.01 0.01 0.01 0.01 0.01 
0.01 0.01 0.01 0.01 0.01 0.01 0.01 0.01 0.01 
0.01 0.01 0.01 0.01 0.01 0.01 0.01 0.01 0.01 
0.01 0.01 0.01 0.01 0.01 0.01 0.01 0.01 0.01 
0.01 0.01 0.01 0.01 0.01 0.01 0.01 0.01 0.01 
0.01 0.01 0.01 0.01 0.01 0.01 0.01 0.01 0.01 
0.01 0.01 0.01 0.01 0.01 0.01 0.01 0.01 0.01 
0.01 0.01 0.01 0.01 0.01 0.01 0.01 0.01 0.01 
0.01 0.01 0.01 0.01 0.01 0.01 0.01 0.01 0.01 
0.01 0.01 0.01 0.01 0.01 0.01 0.01 0.01 0.01 
0.01 0.01 0.01 0.01 0.01 0.01 0.01 0.01 0.01 
0.01 0.01 0.01 0.01 0.01 0.01 0.01 0.01 0.01 
0.01 0.01 0.01 0.01 0.01 0.01 0.01 0.01 0.01 
0.01 0.01 0.01 0.01 0.01 0.01 0.01 0.01 0.01 
0.01 0.01 0.01 0.01 0.01 0.01 0.01 0.01 0.01 
0.01 0.01 0.01 0.01 0.01 0.01 0.01 0.01 0.01 
0.01 0.01 0.01 0.01 0.01 0.01 0.01 0.01 0.01 
0.01 0.01 0.01 0.01 0.01 0.01 0.01 0.01 0.01 
0.01 0.01 0.01 0.01 0.01 0.01 0.01 0.01 0.01 
0.01 0.01 0.01 0.01 0.01 0.01 0.01 0.01 0.01 
0.01 0.01 0.01 0.01 0.01 0.01 0.01 0.01 0.01 
0.01 0.01 0.01 0.01 0.01 0.01 0.01 0.01 0.01 
0.01 0.01 0.01 0.01 0.01 0.01 0.01 0.01 0.01 
0.01 0.01 0.01 0.01 0.01 0.01 0.01 0.01 0.01 
0.01 0.01 0.01 0.01 0.01 0.01 0.01 0.01 0.01 
0.01 0.01 0.01 0.01 0.01 0.01 0.01 0.01 0.01 
0.01 0.01 0.01 0.01 0.01 0.01 0.01 0.01 0.01 
0.01 0.01 0.01 0.01 0.01 0.01 0.01 0.01 0.01 
0.01 0.01 0.01 0.01 0.01 0.01 0.01 0.01 0.01 
0.01 0.01 0.01 0.01 0.01 0.01 0.01 0.01 0.01 
0.01 0.01 0.01 0.01 0.01 0.01 0.01 0.01 0.01 
0.01 0.01 0.01 0.01 0.01 0.01 0.01 0.01 0.01 
0.01 0.01 0.01 0.01 0.01 0.01 0.01 0.01 0.01 
0.01 0.01 0.01 0.01 0.01 0.01 0.01 0.01 0.01 
0.01 0.01 0.01 0.01 0.01 0.01 0.01 0.01 0.01 
0.01 0.01 0.01 0.01 0.01 0.01 0.01 0.01 0.01 
0.01 0.01 0.01 0.01 0.01 0.01 0.01 0.01 0.01 
0.01 0.01 0.01 0.01 0.01 0.01 0.01 0.01 0.01 
0.01 0.01 0.01 0.01 0.01 0.01 0.01 0.01 0.01 
0.01 0.01 0.01 0.01 0.01 0.01 0.01 0.01 0.01 
0.01 0.01 0.01 0.01 0.01 0.01 0.01 0.01 0.01 
0.01 0.01 0.01 0.01 0.01 0.01 0.01 0.01 0.01 
0.01 0.01 0.01 0.01 0.01 0.01 0.01 0.01 0.01 
0.01 0.01 0.01 0.01 0.01 0.01 0.01 0.01 0.01 
0.01 0.01 0.01 0.01 0.01 0.01 0.01 0.01 0.01 
0.01 0.01 0.01 0.01 0.01 0.01 0.01 0.01 0.01 
0.01 0.01 0.01 0.01 0.01 0.01 0.01 0.01 0.01 
0.01 0.01 0.01 0.01 0.01 0.01 0.01 0.01 0.01 
0.01 0.01 0.01 0.01 0.01 0.01 0.01 0.01 0.01 
0.01 0.01 0.01 0.01 0.01 0.01 0.01 0.01 0.01 
0.01 0.01 0.01 0.01 0.01 0.01 0.01 0.01 0.01 
0.01 0.01 0.01 0.01 0.01 0.01 0.01 0.01 0.01 
0.01 0.01 0.01 0.01 0.01 0.01 0.01 0.01 0.01 
0.01 0.01 0.01 0.01 0.01 0.01 0.01 0.01 0.01 
0.01 0.01 0.01 0.01 0.01 0.01 0.01 0.01 0.01 
0.01 0.01 0.01 0.01 0.01 0.01 0.01 0.01 0.01 
0.01 0.01 0.01 0.01 0.01 0.01 0.01 0.01 0.01 
0.01 0.01 0.01 0.01 0.01 0.01 0.01 0.01 0.01 
0.01 0.01 0.01 0.01 0.01 0.01 0.01 0.01 0.01 
0.01 0.01 0.01 0.01 0.01 0.01 0.01 0.01 0.01 
0.01 0.01 0.01 0.01 0.01 0.01 0.01 0.01 0.01 
0.01 0.01 0.01 0.01 0.01 0.01 0.01 0.01 0.01 
0.01 0.01 0.01 0.01 0.01 0.01 0.01 0.01 0.01 
0.01 0.01 0.01 0.01 0.01 0.01 0.01 0.01 0.01 
0.01 0.01 0.01 0.01 0.01 0.01 0.01 0.01 0.01 
0.01 0.01 0.01 0.01 0.01 0.01 0.01 0.01 0.01 
0.01 0.01 0.01 0.01 0.01 0.01 0.01 0.01 0.01 
0.01 0.01 0.01 0.01 0.01 0.01 0.01 0.01 0.01 
0.01 0.01 0.01 0.01 0.01 0.01 0.01 0.01 0.01 
0.01 0.01 0.01 0.01 0.01 0.01 0.01 0.01 0.01 
0.01 0.01 0.01 0.01 0.01 0.01 0.01 0.01 0.01 
0.01 0.01 0.01 0.01 0.01 0.01 0.01 0.01 0.01 
0.01 0.01 0.01 0.01 0.01 0.01 0.01 0.01 0.01 
0.01 0.01 0.01 0.01 0.01 0.01 0.01 0.01 0.01 
0.01 0.01 0.01 0.01 0.01 0.01 0.01 0.01 0.01 
0.01 0.01 0.01 0.01 0.01 0.01 0.01 0.01 0.01 
0.01 0.01 0.01 0.01 0.01 0.01 0.01 0.01 0.01 
0.01 0.01 0.01 0.01 0.01 0.01 0.01 0.01 0.01 
0.01 0.01 0.01 0.01 0.01 0.01 0.01 0.01 0.01 
0.01 0.01 0.01 0.01 0.01 0.01 0.01 0.01 0.01 
0.01 0.01 0.01 0.01 0.01 0.01 0.01 0.01 0.01 
0.01 0.01 0.01 0.01 0.01 0.01 0.01 0.01 0.01 
0.01 0.01 0.01 0.01 0.01 0.01 0.01 0.01 0.01 
0.01 0.01 0.01 0.01 0.01 0.01 0.01 0.01 0.01 
0.01 0.01 0.01 0.01 0.01 0.01 0.01 0.01 0.01 
0.01 0.01 0.01 0.01 0.01 0.01 0.01 0.01 0.01 
0.01 0.01 0.01 0.01 0.01 0.01 0.01 0.01 0.01 
0.01 0.01 0.01 0.01 0.01 0.01 0.01 0.01 0.01 
0.01 0.01 0.01 0.01 0.01 0.01 0.01 0.01 0.01 
0.01 0.01 0.01 0.01 0.01 0.01 0.01 0.01 0.01 
0.01 0.01 0.01 0.01 0.01 0.01 0.01 0.01 0.01 
0.01 0.01 0.01 0.01 0.01 0.01 0.01 0.01 0.01 
0.01 0.01 0.01 0.01 0.01 0.01 0.01 0.01 0.01 
0.01 0.01 0.01 0.01 0.01 0.01 0.01 0.01 0.01 
0.01 0.01 0.01 0.01 0.01 0.01 0.01 0.01 0.01 
0.01 0.01 0.01 0.01 0.01 0.01 0.01 0.01 0.01 
0.01 0.01 0.01 0.01 0.01 0.01 0.01 0.01 0.01 
0.01 0.01 0.01 0.01 0.01 0.01 0.01 0.01 0.01 
0.01 0.01 0.01 0.01 0.01 0.01 0.01 0.01 0.01 
0.01 0.01 0.01 0.01 0.01 0.01 0.01 0.01 0.01 
0.01 0.01 0.01 0.01 0.01 0.01 0.01 0.01 0.01 
0.01 0.01 0.01 0.01 0.01 0.01 0.01 0.01 0.01 
0.01 0.01 0.01 0.01 0.01 0.01 0.01 0.01 0.01 
0.01 0.01 0.01 0.01 0.01 0.01 0.01 0.01 0.01 
0.01 0.01 0.01 0.01 0.01 0.01 0.01 0.01 0.01 
0.01 0.01 0.01 0.01 0.01 0.01 0.01 0.01 0.01 
0.01 0.01 0.01 0.01 0.01 0.01 0.01 0.01 0.01 
0.01 0.01 0.01 0.01 0.01 0.01 0.01 0.01 0.01 
0.01 0.01 0.01 0.01 0.01 0.01 0.01 0.01 0.01 
0.01 0.01 0.01 0.01 0.01 0.01 0.01 0.01 0.01 
0.01 0.01 0.01 0.01 0.01 0.01 0.01 0.01 0.01 
0.01 0.01 0.01 0.01 0.01 0.01 0.01 0.01 0.01 
0.01 0.01 0.01 0.01 0.01 0.01 0.01 0.01 0.01 
0.01 0.01 0.01 0.01 0.01 0.01 0.01 0.01 0.01 
0.01 0.01 0.01 0.01 0.01 0.01 0.01 0.01 0.01 
0.01 0.01 0.01 0.01 0.01 0.01 0.01 0.01 0.01 
0.01 0.01 0.01 0.01 0.01 0.01 0.01 0.01 0.01 
0.01 0.01 0.01 0.01 0.01 0.01 0.01 0.01 0.01 
0.01 0.01 0.01 0.01 0.01 0.01 0.01 0.01 0.01 
0.01 0.01 0.01 0.01 0.01 0.01 0.01 0.01 0.01 
0.01 0.01 0.01 0.01 0.01 0.01 0.01 0.01 0.01 
0.01 0.01 0.01 0.01 0.01 0.01 0.01 0.01 0.01 
0.01 0.01 0.01 0.01 0.01 0.01 0.01 0.01 0.01 
0.01 0.01 0.01 0.01 0.01 0.01 0.01 0.01 0.01 
0.01 0.01 0.01 0.01 0.01 0.01 0.01 0.01 0.01 
0.01 0.01 0.01 0.01 0.01 0.01 0.01 0.01 0.01 
0.01 0.01 0.01 0.01 0.01 0.01 0.01 0.01 0.01 
0.01 0.01 0.01 0.01 0.01 0.01 0.01 0.01 0.01 
0.01 0.01 0.01 0.01 0.01 0.01 0.01 0.01 0.01 
0.01 0.01 0.01 0.01 0.01 0.01 0.01 0.01 0.01 
0.01 0.01 0.01 0.01 0.01 0.01 0.01 0.01 0.01 
0.01 0.01 0.01 0.01 0.01 0.01 0.01 0.01 0.01 
0.01 0.01 0.01 0.01 0.01 0.01 0.01 0.01 0.01 
0.01 0.01 0.01 0.01 0.01 0.01 0.01 0.01 0.01 
0.01 0.01 0.01 0.01 0.01 0.01 0.01 0.01 0.01 
0.01 0.01 0.01 0.01 0.01 0.01 0.01 0.01 0.01 
0.01 0.01 0.01 0.01 0.01 0.01 0.01 0.01 0.01 
0.01 0.01 0.01 0.01 0.01 0.01 0.01 0.01 0.01 
0.01 0.01 0.01 0.01 0.01 0.01 0.01 0.01 0.01 
0.01 0.01 0.01 0.01 0.01 0.01 0.01 0.01 0.01 
0.01 0.01 0.01 0.01 0.01 0.01 0.01 0.01 0.01 
0.01 0.01 0.01 0.01 0.01 0.01 0.01 0.01 0.01 
0.01 0.01 0.01 0.01 0.01 0.01 0.01 0.01 0.01 
0.01 0.01 0.01 0.01 0.01 0.01 0.01 0.01 0.01 
0.01 0.01 0.01 0.01 0.01 0.01 0.01 0.01 0.01 
0.01 0.01 0.01 0.01 0.01 0.01 0.01 0.01 0.01 
0.01 0.01 0.01 0.01 0.01 0.01 0.01 0.01 0.01 
0.01 0.01 0.01 0.01 0.01 0.01 0.01 0.01 0.01 
0.01 0.01 0.01 0.01 0.01 0.01 0.01 0.01 0.01 
0.01 0.01 0.01 0.01 0.01 0.01 0.01 0.01 0.01 
0.01 0.01 0.01 0.01 0.01 0.01 0.01 0.01 0.01 
0.01 0.01 0.01 0.01 0.01 0.01 0.01 0.01 0.01 
0.01 0.01 0.01 0.01 0.01 0.01 0.01 0.01 0.01 
0.01 0.01 0.01 0.01 0.01 0.01 0.01 0.01 0.01 
0.01 0.01 0.01 0.01 0.01 0.01 0.01 0.01 0.01 
0.01 0.01 0.01 0.01 0.01 0.01 0.01 0.01 0.01 
0.01 0.01 0.01 0.01 0.01 0.01 0.01 0.01 0.01 
0.01 0.01 0.01 0.01 0.01 0.01 0.01 0.01 0.01 
0.01 0.01 0.01 0.01 0.01 0.01 0.01 0.01 0.01 
0.01 0.01 0.01 0.01 0.01 0.01 0.01 0.01 0.01 
0.01 0.01 0.01 0.01 0.01 0.01 0.01 0.01 0.01 
0.01 0.01 0.01 0.01 0.01 0.01 0.01 0.01 0.01 
0.01 0.01 0.01 0.01 0.01 0.01 0.01 0.01 0.01 
0.01 0.01 0.01 0.01 0.01 0.01 0.01 0.01 0.01 
0.01 0.01 0.01 0.01 0.01 0.01 0.01 0.01 0.01 
0.01 0.01 0.01 0.01 0.01 0.01 0.01 0.01 0.01 
0.01 0.01 0.01 0.01 0.01 0.01 0.01 0.01 0.01 
0.01 0.01 0.01 0.01 0.01 0.01 0.01 0.01 0.01 
0.01 0.01 0.01 0.01 0.01 0.01 0.01 0.01 0.01 
0.01 0.01 0.01 0.01 0.01 0.01 0.01 0.01 0.01 
0.01 0.01 0.01 0.01 0.01 0.01 0.01 0.01 0.01 
0.01 0.01 0.01 0.01 0.01 0.01 0.01 0.01 0.01 
0.01 0.01 0.01 0.01 0.01 0.01 0.01 0.01 0.01 
0.01 0.01 0.01 0.01 0.01 0.01 0.01 0.01 0.01 
0.01 0.01 0.01 0.01 0.01 0.01 0.01 0.01 0.01 
0.01 0.01 0.01 0.01 0.01 0.01 0.01 0.01 0.01 
0.01 0.01 0.01 0.01 0.01 0.01 0.01 0.01 0.01 
0.01 0.01 0.01 0.01 0.01 0.01 0.01 0.01 0.01 
0.01 0.01 0.01 0.01 0.01 0.01 0.01 0.01 0.01 
0.01 0.01 0.01 0.01 0.01 0.01 0.01 0.01 0.01 
0.01 0.01 0.01 0.01 0.01 0.01 0.01 0.01 0.01 
0.01 0.01 0.01 0.01 0.01 0.01 0.01 0.01 0.01 
0.01 0.01 0.01 0.01 0.01 0.01 0.01 0.01 0.01 
0.01 0.01 0.01 0.01 0.01 0.01 0.01 0.01 0.01 
0.01 0.01 0.01 0.01 0.01 0.01 0.01 0.01 0.01 
0.01 0.01 0.01 0.01 0.01 0.01 0.01 0.01 0.01 
0.01 0.01 0.01 0.01 0.01 0.01 0.01 0.01 0.01 
0.01 0.01 0.01 0.01 0.01 0.01 0.01 0.01 0.01 
0.01 0.01 0.01 0.01 0.01 0.01 0.01 0.01 0.01 
0.01 0.01 0.01 0.01 0.01 0.01 0.01 0.01 0.01 
0.01 0.01 0.01 0.01 0.01 0.01 0.01 0.01 0.01 
0.01 0.01 0.01 0.01 0.01 0.01 0.01 0.01 0.01 
0.01 0.01 0.01 0.01 0.01 0.01 0.01 0.01 0.01 
0.01 0.01 0.01 0.01 0.01 0.01 0.01 0.01 0.01 
0.01 0.01 0.01 0.01 0.01 0.01 0.01 0.01 0.01 
0.01 0.01 0.01 0.01 0.01 0.01 0.01 0.01 0.01 
0.01 0.01 0.01 0.01 0.01 0.01 0.01 0.01 0.01 
0.01 0.01 0.01 0.01 0.01 0.01 0.01 0.01 0.01 
0.01 0.01 0.01 0.01 0.01 0.01 0.01 0.01 0.01 
0.01 0.01 0.01 0.01 0.01 0.01 0.01 0.01 0.01 
0.01 0.01 0.01 0.01 0.01 0.01 0.01 0.01 0.01 
0.01 0.01 0.01 0.01 0.01 0.01 0.01 0.01 0.01 
0.01 0.01 0.01 0.01 0.01 0.01 0.01 0.01 0.01 
0.01 0.01 0.01 0.01 0.01 0.01 0.01 0.01 0.01 
0.01 0.01 0.01 0.01 0.01 0.01 0.01 0.01 0.01 
0.01 0.01 0.01 0.01 0.01 0.01 0.01 0.01 0.01 
0.01 0.01 0.01 0.01 0.01 0.01 0.01 0.01 0.01 
0.01 0.01 0.01 0.01 0.01 0.01 0.01 0.01 0.01 
0.01 0.01 0.01 0.01 0.01 0.01 0.01 0.01 0.01 
0.01 0.01 0.01 0.01 0.01 0.01 0.01 0.01 0.01 
0.01 0.01 0.01 0.01 0.01 0.01 0.01 0.01 0.01 
0.01 0.01 0.01 0.01 0.01 0.01 0.01 0.01 0.01 
0.01 0.01 0.01 0.01 0.01 0.01 0.01 0.01 0.01 
0.01 0.01 0.01 0.01 0.01 0.01 0.01 0.01 0.01 
0.01 0.01 0.01 0.01 0.01 0.01 0.01 0.01 0.01 
0.01 0.01 0.01 0.01 0.01 0.01 0.01 0.01 0.01 
0.01 0.01 0.01 0.01 0.01 0.01 0.01 0.01 0.01 
0.01 0.01 0.01 0.01 0.01 0.01 0.01 0.01 0.01 
0.01 0.01 0.01 0.01 0.01 0.01 0.01 0.01 0.01 
0.01 0.01 0.01 0.01 0.01 0.01 0.01 0.01 0.01 
0.01 0.01 0.01 0.01 0.01 0.01 0.01 0.01 0.01 
0.01 0.01 0.01 0.01 0.01 0.01 0.01 0.01 0.01 
0.01 0.01 0.01 0.01 0.01 0.01 0.01 0.01 0.01 
0.01 0.01 0.01 0.01 0.01 0.01 0.01 0.01 0.01 
0.01 0.01 0.01 0.01 0.01 0.01 0.01 0.01 0.01 
0.01 0.01 0.01 0.01 0.01 0.01 0.01 0.01 0.01 
0.01 0.01 0.01 0.01 0.01 0.01 0.01 0.01 0.01 
0.01 0.01 0.01 0.01 0.01 0.01 0.01 0.01 0.01 
0.01 0.01 0.01 0.01 0.01 0.01 0.01 0.01 0.01 
0.01 0.01 0.01 0.01 0.01 0.01 0.01 0.01 0.01 
0.01 0.01 0.01 0.01 0.01 0.01 0.01 0.01 0.01 
0.01 0.01 0.01 0.01 0.01 0.01 0.01 0.01 0.01 
0.01 0.01 0.01 0.01 0.01 0.01 0.01 0.01 0.01 
0.01 0.01 0.01 0.01 0.01 0.01 0.01 0.01 0.01 
0.01 0.01 0.01 0.01 0.01 0.01 0.01 0.01 0.01 
0.01 0.01 0.01 0.01 0.01 0.01 0.01 0.01 0.01 
0.01 0.01 0.01 0.01 0.01 0.01 0.01 0.01 0.01 
0.01 0.01 0.01 0.01 0.01 0.01 0.01 0.01 0.01 
0.01 0.01 0.01 0.01 0.01 0.01 0.01 0.01 0.01 
0.01 0.01 0.01 0.01 0.01 0.01 0.01 0.01 0.01 
0.01 0.01 0.01 0.01 0.01 0.01 0.01 0.01 0.01 
0.01 0.01 0.01 0.01 0.01 0.01 0.01 0.01 0.01 
0.01 0.01 0.01 0.01 0.01 0.01 0.01 0.01 0.01 
0.01 0.01 0.01 0.01 0.01 0.01 0.01 0.01 0.01 
0.01 0.01 0.01 0.01 0.01 0.01 0.01 0.01 0.01 
0.01 0.01 0.01 0.01 0.01 0.01 0.01 0.01 0.01 
0.01 0.01 0.01 0.01 0.01 0.01 0.01 0.01 0.01 
0.01 0.01 0.01 0.01 0.01 0.01 0.01 0.01 0.01 
0.01 0.01 0.01 0.01 0.01 0.01 0.01 0.01 0.01 
0.01 0.01 0.01 0.01 0.01 0.01 0.01 0.01 0.01 
0.01 0.01 0.01 0.01 0.01 0.01 0.01 0.01 0.01 