# vtk DataFile Version 3.0
vtk output
ASCII
DATASET POLYDATA
POINTS 116 float
-1.38778e-17 0.0714285 9.59184 0 0 10 0 0.142857 9.18367 
-1.38778e-17 0.0714285 9.59184 0 0.214286 8.77551 6.93889e-18 0.204082 8.83382 
6.93889e-18 0.204082 8.83382 0 0.142857 9.18367 -6.93889e-18 0.285714 8.36735 
0 0.214286 8.77551 0 0.357143 7.95918 -6.93889e-18 0.285714 8.36735 
1.38778e-17 0.428571 7.55102 0 0.357143 7.95918 0 0.5 7.14286 
1.38778e-17 0.428571 7.55102 0 0.571429 6.73469 0 0.5 7.14286 
-8.67362e-18 0.642857 6.32653 0 0.612245 6.50146 0 0.612245 6.50146 
0 0.571429 6.73469 0 0.714286 5.91837 -8.67362e-18 0.642857 6.32653 
0 0.785714 5.5102 0 0.714286 5.91837 0 0.857143 5.10204 
0 0.785714 5.5102 0 0.928571 4.69388 0 0.857143 5.10204 
0 1 4.28572 0 0.928571 4.69388 3.46945e-18 1.07143 3.87755 
0 1.02041 4.1691 0 1.02041 4.1691 0 1 4.28572 
0 1.14286 3.46939 3.46945e-18 1.07143 3.87755 0 1.21429 3.06122 
0 1.14286 3.46939 0 1.28571 2.65306 0 1.21429 3.06122 
0 1.35714 2.2449 0 1.28571 2.65306 0 1.42857 1.83673 
0 1.35714 2.2449 6.93889e-18 1.5 1.42857 0 1.42857 1.83673 
0 1.42857 1.83673 0 1.42857 1.83673 0 1.57143 1.02041 
6.93889e-18 1.5 1.42857 1.38778e-17 1.64286 0.612245 0 1.57143 1.02041 
0 1.71429 0.204082 1.38778e-17 1.64286 0.612245 -1.38778e-17 1.78571 -0.204082 
0 1.71429 0.204082 -1.04083e-17 1.85714 -0.612245 0 1.83673 -0.495628 
0 1.83673 -0.495628 -1.38778e-17 1.78571 -0.204082 -1.38778e-17 1.92857 -1.02041 
-1.04083e-17 1.85714 -0.612245 -1.38778e-17 2 -1.42857 -1.38778e-17 1.92857 -1.02041 
1.38778e-17 2.07143 -1.83673 -1.38778e-17 2 -1.42857 1.38778e-17 2.14286 -2.2449 
1.38778e-17 2.07143 -1.83673 1.38778e-17 2.21429 -2.65306 1.38778e-17 2.14286 -2.2449 
-6.93889e-18 2.28571 -3.06122 0 2.2449 -2.82799 0 2.2449 -2.82799 
1.38778e-17 2.21429 -2.65306 0 2.35714 -3.46939 -6.93889e-18 2.28571 -3.06122 
-1.38778e-17 2.42857 -3.87755 0 2.35714 -3.46939 0 2.5 -4.28571 
-1.38778e-17 2.42857 -3.87755 0 2.57143 -4.69388 0 2.5 -4.28571 
0 2.64286 -5.10204 0 2.57143 -4.69388 -3.46945e-18 2.71429 -5.5102 
0 2.65306 -5.16035 0 2.65306 -5.16035 0 2.64286 -5.10204 
0 2.78571 -5.91837 -3.46945e-18 2.71429 -5.5102 0 2.85714 -6.32653 
0 2.78571 -5.91837 0 2.92857 -6.73469 0 2.85714 -6.32653 
-1.38778e-17 3 -7.14286 0 2.92857 -6.73469 6.07153e-18 3.07143 -7.55102 
-3.46945e-17 3.06122 -7.49271 -3.46945e-17 3.06122 -7.49271 -1.38778e-17 3 -7.14286 
0 3.14286 -7.95918 6.07153e-18 3.07143 -7.55102 0 3.21429 -8.36735 
0 3.14286 -7.95918 1.38778e-17 3.28571 -8.77551 0 3.21429 -8.36735 
0 3.35714 -9.18367 1.38778e-17 3.28571 -8.77551 0 3.42857 -9.59184 
0 3.35714 -9.18367 5.20417e-18 3.5 -10 1.38778e-17 3.46939 -9.82507 
1.38778e-17 3.46939 -9.82507 0 3.42857 -9.59184 
LINES 58 174
2 0 1 
2 2 3 
2 4 5 
2 6 7 
2 8 9 
2 10 11 
2 12 13 
2 14 15 
2 16 17 
2 18 19 
2 20 21 
2 22 23 
2 24 25 
2 26 27 
2 28 29 
2 30 31 
2 32 33 
2 34 35 
2 36 37 
2 38 39 
2 40 41 
2 42 43 
2 44 45 
2 46 47 
2 48 49 
2 50 51 
2 52 53 
2 54 55 
2 56 57 
2 58 59 
2 60 61 
2 62 63 
2 64 65 
2 66 67 
2 68 69 
2 70 71 
2 72 73 
2 74 75 
2 76 77 
2 78 79 
2 80 81 
2 82 83 
2 84 85 
2 86 87 
2 88 89 
2 90 91 
2 92 93 
2 94 95 
2 96 97 
2 98 99 
2 100 101 
2 102 103 
2 104 105 
2 106 107 
2 108 109 
2 110 111 
2 112 113 
2 114 115 

POINT_DATA 116
SCALARS airVf float
LOOKUP_TABLE default
1 1 0.505762 1 0.00625 0.0763114 0.0763114 0.505762 0 
0.00625 0.191797 0 0.688125 0.191797 1 0.688125 1 1 
1 1 1 1 1 1 1 1 1 
1 1 1 1 1 1 1 1 1 
1 1 1 1 1 1 1 1 1 
1 1 1 1 1 1 1 1 1 
1 1 1 1 1 1 1 1 1 
1 1 1 1 1 1 1 1 1 
1 1 1 1 1 1 1 1 1 
1 1 1 1 1 1 1 1 1 
1 1 1 1 0.901375 1 0.4205 0.901375 0.0231562 
0.0762528 0.0762528 0.4205 0.0118751 0.0231562 0.407422 0.0118751 0.907031 0.407422 
1 0.907031 1 1 1 1 1 1 
