# vtk DataFile Version 3.0
vtk output
ASCII
DATASET POLYDATA
POINTS 1 float
-48.6306 57.1689 -4.67235

VERTICES 1 2
1 0

POINT_DATA 1
SCALARS t float
LOOKUP_TABLE default
20
