# vtk DataFile Version 3.0
vtk output
ASCII
DATASET POLYDATA
POINTS 14 float
436552 3.68201e+06 162.2 436725 3.6819e+06 152.6 436793 3.68201e+06 154.1 
436556 3.6819e+06 153.4 436557 3.68182e+06 148.8 436664 3.68178e+06 144.8 
436727 3.68184e+06 147 436679 3.68176e+06 146.5 436572 3.68192e+06 109 
436573 3.68184e+06 111 436698 3.68177e+06 105 436579 3.68173e+06 109 
436568 3.68202e+06 115 436752 3.6821e+06 118 
POLYGONS 11 44
3 9 11 10 
3 5 7 6 
3 4 7 5 
3 8 9 10 
3 5 6 1 
3 3 5 1 
3 3 4 5 
3 8 10 13 
3 0 1 2 
3 12 8 13 
3 0 3 1 

CELL_DATA 11
POINT_DATA 14
NORMALS Normals float
0.0216716 -0.0530457 0.998357 0.0184256 -0.059361 0.998066 0.0335711 -0.0343737 0.998845 
0.00673557 -0.0702862 0.997504 0.028211 -0.024466 0.999303 0.0120158 -0.0520246 0.998574 
0.00956022 -0.0466632 0.998865 0.000538613 0.0850955 0.996373 0.002169 -0.0346274 0.999398 
0.0489523 0.00180351 0.9988 0.00698972 -0.0248341 0.999667 0.0389751 -0.0160397 0.999111 
0.0095979 -0.059507 0.998182 -0.00657261 -0.0433792 0.999037 
FIELD FieldData 1
Colors 4 14 unsigned_char
0 4 255 127 0 0 255 127 0 
0 255 127 255 0 0 127 255 145 
0 127 0 12 255 127 0 0 255 
127 0 52 255 127 0 255 198 127 
0 255 36 127 0 0 255 127 0 
255 198 127 255 238 0 127 255 0 
0 127 
