 TITLE = "UPLOT.tec"
 VARIABLES = "x","U"
 ZONE I =         120 ,F=POINT
  0.000000000000000E+000  2.179332499297225E-014
  4.545454545454546E-002  2.009407612984161E-014
  9.090909090909091E-002  3.237026322521651E-015
  0.136363636363636      -1.206458315112082E-014
  0.181818181818182       7.123278272894206E-015
  0.227272727272727       5.497461610783303E-016
  0.272727272727273      -8.336996126440930E-015
  0.318181818181818       1.528189253330144E-014
  0.363636363636364      -1.589101378790790E-014
  0.409090909090909      -1.246163470571340E-014
  0.454545454545455       8.811509188320783E-014
  0.500000000000000       1.411733741955292E-013
  0.500000000000000       1.771978927840973E-013
  0.545454545454545       8.183567434727888E-014
  0.590909090909091      -1.262484196215219E-013
  0.636363636363636       2.074256581193177E-013
  0.681818181818182       2.690317350192148E-012
  0.727272727272727       3.215947945144171E-011
  0.772727272727273       3.489181348147307E-010
  0.818181818181818       3.319813988405033E-009
  0.863636363636364       2.782245722241247E-008
  0.909090909090909       2.052959248002651E-007
  0.954545454545455       1.333759474880908E-006
   1.00000000000000       7.629394501512815E-006
   1.00000000000000       7.629394981891260E-006
   1.04545454545455       3.842527845372630E-005
   1.09090909090909       1.703955862230454E-004
   1.13636363636364       6.652947178696730E-004
   1.18181818181818       2.287095089114920E-003
   1.22727272727273       6.922592755565192E-003
   1.27272727272727       1.844878468835366E-002
   1.31818181818182       4.328935924802624E-002
   1.36363636363636       8.943530037327264E-002
   1.40909090909091       0.162686381453516     
   1.45454545454545       0.260560060560225     
   1.50000000000000       0.367433636611394     
   1.50000000000000       0.367433636603684     
   1.54545454545455       0.456209572423948     
   1.59090909090909       0.498728623707931     
   1.63636363636364       0.480041317520580     
   1.68181818181818       0.406824795623114     
   1.72727272727273       0.303564604800000     
   1.77272727272727       0.199440795408807     
   1.81818181818182       0.115381381848012     
   1.86363636363636       5.882871999554334E-002
   1.90909090909091       2.664753361455038E-002
   1.95454545454545       1.151059532428126E-002
   2.00000000000000       7.233394964113334E-003
   2.00000000000000       7.233394964113914E-003
   2.04545454545455       1.151059532428161E-002
   2.09090909090909       2.664753361455091E-002
   2.13636363636364       5.882871999554314E-002
   2.18181818181818       0.115381381848013     
   2.22727272727273       0.199440795408807     
   2.27272727272727       0.303564604800001     
   2.31818181818182       0.406824795623115     
   2.36363636363636       0.480041317520581     
   2.40909090909091       0.498728623707932     
   2.45454545454545       0.456209572423949     
   2.50000000000000       0.367433636603685     
   2.50000000000000       0.367433636611395     
   2.54545454545455       0.260560060560226     
   2.59090909090909       0.162686381453517     
   2.63636363636364       8.943530037327307E-002
   2.68181818181818       4.328935924802624E-002
   2.72727272727273       1.844878468835374E-002
   2.77272727272727       6.922592755565343E-003
   2.81818181818182       2.287095089114931E-003
   2.86363636363636       6.652947178695847E-004
   2.90909090909091       1.703955862231972E-004
   2.95454545454545       3.842527845405309E-005
   3.00000000000000       7.629394981480912E-006
   3.00000000000000       7.629394502410242E-006
   3.04545454545455       1.333759474728482E-006
   3.09090909090909       2.052959251302989E-007
   3.13636363636364       2.782245736513729E-008
   3.18181818181818       3.319813694679601E-009
   3.22727272727273       3.489183988875036E-010
   3.27272727272727       3.215934510911752E-011
   3.31818181818182       2.690200367948001E-012
   3.36363636363636       2.079477977488525E-013
   3.40909090909091      -1.268460337258833E-013
   3.45454545454545       7.927225001405176E-014
   3.50000000000000       1.767888837362459E-013
   3.50000000000000       1.341724882362166E-013
   3.54545454545455       8.437717770377270E-014
   3.59090909090909      -1.474195551747201E-014
   3.63636363636364      -1.399681671594433E-014
   3.68181818181818       1.518253239406848E-014
   3.72727272727273      -9.740581528635626E-015
   3.77272727272727       2.975666801875863E-015
   3.81818181818182       4.466389716848922E-015
   3.86363636363636      -1.131341757257771E-014
   3.90909090909091       8.821198342037125E-015
   3.95454545454545       1.808070817289179E-014
   4.00000000000000       6.568386706301848E-015
   4.00000000000000       1.522174775716170E-014
   4.04545454545455       2.009964435936669E-015
   4.09090909090909      -5.584524669019997E-015
   4.13636363636364      -7.499841075966093E-016
   4.18181818181818       2.656088455953773E-015
   4.22727272727273      -2.425693755970007E-015
   4.27272727272727       1.403973686576018E-015
   4.31818181818182       9.827341329966910E-017
   4.36363636363636      -1.892489617396561E-015
   4.40909090909091       2.279622359171958E-015
   4.45454545454545       3.730965004313481E-015
   4.50000000000000       7.000326840083103E-015
   4.50000000000000       4.003399270795703E-016
   4.54545454545455       2.566996672981066E-015
   4.59090909090909       6.056962513035152E-016
   4.63636363636364      -5.267060443433726E-016
   4.68181818181818       1.163090704700762E-016
   4.72727272727273       1.388154169121739E-016
   4.77272727272727      -2.713607001736439E-016
   4.81818181818182       3.010849468703179E-016
   4.86363636363636      -1.474380341583298E-016
   4.90909090909091      -3.413440190405319E-016
   4.95454545454545       1.531684929042610E-016
   5.00000000000000      -9.984240906992528E-016
